6
Lattice="3.76635143 0.0 0.0 0.0 6.90547515 0.0 0.0 0.0 100.0" Properties=species:S:1:pos:R:3:initial_charges:R:1:forces:R:3 frame_id=2007 subset=2d corrected_energy=-28.404840874136426 split=train energy=-984022.058099348 free_energy=-984022.058099348 stress="nan nan nan nan nan nan nan nan nan" pbc="T T F"
Zr       0.94158786       4.00167187      14.74745989       0.37716492      -0.00000001      -0.16194446      -0.05613518
Zr       2.82476357       1.40588008      14.64103667      -0.35718503      -0.00000046       0.16181873       0.05612618
I        0.94158786       6.70112334      16.32920971      -0.81481141       0.00000061       0.01029256       0.02262772
I        2.82476357       5.61187631      13.05928345      -0.86370319      -0.00000041      -0.01018966      -0.02264092
I        0.94158786       2.14914821      12.50000000       0.72978202       0.00000062      -0.01833215      -0.06475484
I        2.82476357       3.25838757      16.88849447       0.92875270      -0.00000035       0.01835498       0.06477705
9
Lattice="6.89803295 0.0 0.0 2.73451083 6.33287571 0.0 0.0 0.0 100.0" Properties=species:S:1:pos:R:3:initial_charges:R:1:forces:R:3 frame_id=385 subset=2d corrected_energy=-44.59175796457566 split=train energy=-625859.070467066 free_energy=-625859.070467066 stress="nan nan nan nan nan nan nan nan nan" pbc="T T F"
Ba       4.81596561       3.16690428      13.96431925      -0.10452291      -0.00000710       0.00001247      -0.00003040
B        8.56618487       5.63247339      13.96424424       0.77276124       0.05347231       0.03560926      -0.00008114
Se       6.88135288       6.23420957      12.98442069      -0.83984693      -0.07345001      -0.05032174       0.24767097
Se       8.45063721       3.84714662      14.94406985       0.76913274      -0.07521936      -0.04693453      -0.24732353
Se       3.14040091       5.71550217      12.50000000      -0.50450325      -0.01288247       0.02016729       0.14901483
Se       6.49155036       0.61827448      15.42852330      -0.28151326       0.01290156      -0.02019338      -0.14902644
B        1.06574330       0.70133872      13.96424515       0.52723903      -0.05350691      -0.03555997       0.00018835
Se       2.75060339       0.09968276      14.94407043      -0.30976788       0.07346118       0.05030348      -0.24770353
Se       1.18120596       2.48667144      12.98442112      -0.02897878       0.07523080       0.04691712       0.24729089
20
Lattice="8.32191123 0.0 0.0 4.17055686 10.39953235 0.0 0.0 0.0 100.0" Properties=species:S:1:pos:R:3:initial_charges:R:1:forces:R:3 frame_id=1946 subset=2d corrected_energy=-105.86319757322781 split=train energy=-1526214.55369749 free_energy=-1526214.55369749 stress="nan nan nan nan nan nan nan nan nan" pbc="T T F"
Sb      10.42574795       6.61883563      12.82747017      -0.38775594      -0.01316708       0.13784872       0.07740017
S       10.53172266       6.59565314      15.28131371       0.51507493       0.11872348      -0.13217011      -0.20050558
S        4.00402651       8.26164207      12.50000000      -0.64395066      -0.03553056       0.03428029       0.21847672
Sb       6.24677654       6.11825783      12.87661259      -0.34230985       0.06456563      -0.10518445       0.26042970
Sb       8.31495686       9.47787905      14.88099487      -0.74936924       0.00863041       0.46960894      -0.29849568
Sb       2.06031337       1.47103951      13.61396660       0.85779550      -0.00853168      -0.47023030       0.29856190
Sb       4.14504012       9.39119592      14.72276942      -0.48602677      -0.00500569       0.52212201      -0.26252897
Sb       6.23026204       1.55769489      13.77212774       0.27255665       0.00510997      -0.52247884       0.26242951
S        4.27336021       4.36641420      13.22778478       0.84783353       0.10038881       0.11196338       0.23838640
S        8.41865563       8.20044060      12.72432483      -0.63152242       0.05201206       0.03184118       0.18722872
S        1.95659531       2.74738743      15.77114783      -0.21504362      -0.05192567      -0.03057456      -0.18728696
O       10.38267110      10.05429394      14.55655974      -0.28132380      -0.04011276       0.17646647      -0.14629808
O        8.31456061       0.89443734      13.93812480      -0.50635849       0.04023636      -0.17684575       0.14627960
O        6.25242965       9.93571124      14.27924497       0.41717765       0.03751020       0.29102540      -0.04966770
O        4.12296876       1.01308298      14.21549183       0.31228684      -0.03743538      -0.29126817       0.04971749
Sb       8.27174154       4.32948588      15.66808291       0.26326432       0.01303175      -0.13840611      -0.07748601
S        8.16598939       4.35286291      13.21422263      -0.69845912      -0.11906024       0.13162947       0.20042250
S        6.37154241       2.68663258      15.99519571       0.15893223       0.03535482      -0.03402967      -0.21819945
S        6.10211528       6.58137401      15.26780661       0.67451946      -0.10048160      -0.11058809      -0.23843750
Sb       4.12863752       4.82985897      15.61892789       0.62267880      -0.06431285       0.10499021      -0.26042678
18
Lattice="9.73412807 0.0 0.0 0.0 9.81565207 0.0 0.0 0.0 100.0" Properties=species:S:1:pos:R:3:initial_charges:R:1:forces:R:3 frame_id=2337 subset=2d corrected_energy=-75.0709989471361 split=train energy=-3240885.11378658 free_energy=-3240885.11378658 stress="nan nan nan nan nan nan nan nan nan" pbc="T T F"
Ba       9.59973112       1.21464916      16.24859960       0.00134384      -0.03717660      -0.00345428       0.06659571
Ba       0.13439695       6.12247520      15.08922962       0.57581353       0.03717512      -0.00345756      -0.06659971
Ba       4.73266708       6.12247520      15.08922962       0.15857195      -0.03717430      -0.00345688      -0.06659916
Ba       5.00146099       1.21464916      16.24859960      -0.30982882       0.03717335      -0.00345466       0.06659449
Ga       2.43353202       3.32993565      13.58516983      -0.19607856      -0.00000066       0.08703003      -0.07862527
Ga       7.30059605       8.23776169      17.75265939       0.51058000      -0.00000056       0.08702965       0.07863809
Sb       2.43353202       9.52566281      12.97783215      -0.50709610      -0.00000112       0.19409204       0.09123969
Sb       7.30059605       4.61783678      18.35999707       0.44029913       0.00000096       0.19409650      -0.09122859
Te       2.43353202       3.63054823      16.27714117      -0.26104213       0.00000075      -0.04653068      -0.13374178
Te       7.30059605       8.53837427      15.06068805      -0.63688202       0.00000148      -0.04653327       0.13374245
Te       2.43353202       8.74274243      15.76718807      -0.24785137       0.00000058       0.07641829      -0.11904717
Te       7.30059605       3.83491640      15.57064115       0.66176072       0.00000111       0.07641939       0.11904757
Te       2.43353202       5.68917751      12.50000000      -0.01809404       0.00000030      -0.25436272       0.13980040
Te       0.41016834       1.69182435      12.83034137      -0.07485400       0.21258705      -0.02486611       0.06777996
Te       9.32395973       6.59965038      18.50748785      -0.58017836      -0.21258825      -0.02486980      -0.06778597
Te       5.27723237       6.59965038      18.50748785       0.61758193       0.21258889      -0.02486987      -0.06778610
Te       4.45689570       1.69182435      12.83034137      -0.61374396      -0.21258927      -0.02486648       0.06777966
Te       7.30059605       0.78135148      18.83782922       0.47969827       0.00000116      -0.25436359      -0.13980427
26
Lattice="7.59773065 0.0 0.0 1.7871811 13.24345644 0.0 0.0 0.0 100.0" Properties=species:S:1:pos:R:3:initial_charges:R:1:forces:R:3 frame_id=2179 subset=2d corrected_energy=-146.36077916808426 split=train energy=-3238725.549872 free_energy=-3238725.549872 stress="nan nan nan nan nan nan nan nan nan" pbc="T T F"
Cl       7.29729372       2.67440402      12.69955400       0.62268931       0.00116928       0.03217377       0.24385879
Cl       3.53111937       2.69375297      12.71610165       0.71518259      -0.00489072       0.02481965       0.24040497
Bi       3.58410057      11.25065250      15.30291568       0.14365285       0.08280454      -0.09635246      -0.01641604
Bi       1.43366631       7.98695356      13.95656930       0.99474212      -0.08287139       0.09640667       0.01608782
W        3.51761336       4.43445371      14.41054672      -0.47848896       0.00868299      -0.13764160       0.01494124
W        7.31064030       1.55970156      14.84893244       0.34169061      -0.00859336       0.13763418      -0.01502306
W        3.51298384       1.61032288      14.87798090      -0.82210393       0.00827651       0.16263609      -0.02514594
W        7.31527086       4.38383989      14.38150161       0.15899914      -0.00827906      -0.16263095       0.02510578
Cl       3.43875598       5.92139379      12.53790231      -0.14744111       0.00844320      -0.10241097       0.16389872
Cl       7.38950890       0.07276237      16.72157220      -0.42022448      -0.00844625       0.10239881      -0.16384713
Cl       5.26769605      12.80509051      13.54911018       1.02120853      -0.01597038       0.06759797       0.13301815
Cl       7.34776292       6.43253158      15.71037079      -0.15752074       0.01595499      -0.06764526      -0.13298222
Cl       5.19528787       9.80366492      16.49305970      -0.29524369      -0.14296068       0.08190687      -0.12965750
Cl       7.42024290       9.43395701      12.76639919      -0.70184209       0.14294175      -0.08190503       0.12969645
Cl       3.48804417       6.40328342      15.74986116      -0.72924047       0.00130170      -0.10190302      -0.11365419
Cl       9.12741333      12.83432834      13.50961924       1.01699073      -0.00130037       0.10190776       0.11370767
Cl       3.44204039       0.12770409      16.75949122       0.20572299      -0.02409231       0.07967162      -0.17680135
Cl       7.38622307       5.86646208      12.50000000       0.83202912       0.02409114      -0.07967862       0.17681205
Cl       3.53973471       9.64393587      13.17831529      -0.92199571      -0.07402320       0.03741583       0.17700674
Cl       1.47804397       9.59366324      16.08117478       0.24724128       0.07401119      -0.03742507      -0.17695185
O        1.61416200       4.38432534      14.41289320      -0.11170822      -0.01360278      -0.00128583       0.01054551
O        1.61636680       1.60983579      14.84658736      -0.20469431       0.01362859       0.00127304      -0.01049974
O        5.41013817       1.57127067      14.86921389       0.46086213      -0.00327737       0.03858420      -0.01702658
O        5.41812075       4.42288303      14.39026548      -0.82933987       0.00330763      -0.03855335       0.01707645
Cl       3.53097053       3.31975532      16.55992544      -0.48053662      -0.00118259      -0.03216183      -0.24379441
Cl       7.29714330       3.30040475      16.54337809      -0.46063116       0.00487694      -0.02483245      -0.24036035
